LAMMPS (17 Apr 2024)
OMP_NUM_THREADS environment is not set. Defaulting to 1 thread. (src/comm.cpp:98)
  using 1 OpenMP thread(s) per MPI task
Loaded 1 plugins from C:\Users\wwwpi\AppData\Local\LAMMPS 64-bit 17Apr2024 with GUI\plugins
units real
boundary p p p
atom_style atomic
atom_modify map array sort 0 0
read_data argon.data
Reading data file ...
  orthogonal box = (-0.007 0.022 0.0085) to (19.993 20.022 20.0085)
  1 by 1 by 1 MPI processor grid
  reading atoms ...
  512 atoms
  reading velocities ...
  512 velocities
  read_data CPU = 0.004 seconds
pair_style lj/cut 10.0
pair_coeff * * 0.371 3.949999999999993
velocity all create 100 7545
neighbor 2.0 nsq
neigh_modify delay 0 every 1 check yes
timestep 1
thermo 10
thermo_style custom step density pe enthalpy
thermo_modify flush yes
fix 1 all npt temp 100 100 10 iso 0.986923 0.986923 100
run 1000
Generated 0 of 0 mixed pair_coeff terms from geometric mixing rule
Neighbor list info ...
  update: every = 1 steps, delay = 0 steps, check = yes
  max neighbors/atom: 2000, page size: 100000
  master list distance cutoff = 12
  ghost atom cutoff = 12
  1 neighbor lists, perpetual/occasional/extra = 1 0 0
  (1) pair lj/cut, perpetual
      attributes: half, newton on
      pair build: half/nsq/newton
      stencil: none
      bin: none
Per MPI rank memory allocation (min/avg/max) = 3.529 | 3.529 | 3.529 Mbytes
   Step        Density         PotEng        Enthalpy   
         0   4.2454534      278694.92      1480864.3    
        10   0.73683563    -969.69966     -2223.3979    
        20   0.75117485    -997.18243     -2212.7502    
        30   0.76560333    -1024.1712     -2180.0865    
        40   0.78000281    -1050.3089     -2140.7838    
        50   0.79436373    -1075.2539     -2133.9106    
        60   0.80883562    -1098.8873     -2169.6517    
        70   0.823391      -1121.2091     -2178.4596    
        80   0.83774315    -1141.5245     -2137.0502    
        90   0.85159423    -1158.6859     -2073.4281    
       100   0.8648201     -1172.3444     -2025.491     
       110   0.8773619     -1182.4847     -1975.684     
       120   0.88899688    -1188.8507     -1886.6689    
       130   0.89940032    -1190.8167     -1764.3101    
       140   0.90838794    -1188.5482     -1643.7731    
       150   0.91593476    -1182.8692     -1533.8778    
       160   0.92204258    -1175.0969     -1420.0724    
       170   0.92668907    -1165.982      -1298.0632    
       180   0.92993894    -1156.3689     -1187.9617    
       190   0.93198693    -1147.3021     -1101.3084    
       200   0.93308289    -1139.7746     -1036.1972    
       210   0.93345381    -1133.927      -985.01349    
       220   0.9332936     -1129.8686     -947.59342    
       230   0.93279614    -1127.3501     -927.80517    
       240   0.93214255    -1126.3033     -924.28836    
       250   0.93145877    -1126.2002     -926.18936    
       260   0.93079441    -1126.7764     -926.57444    
       270   0.93017808    -1127.8633     -930.26426    
       280   0.92966807    -1129.1912     -945.42357    
       290   0.92931651    -1130.4788     -963.5921     
       300   0.92908387    -1131.7827     -966.69961    
       310   0.92886066    -1133.0712     -952.29398    
       320   0.92867553    -1134.0003     -967.64567    
       330   0.92864363    -1134.5734     -984.95214    
       340   0.92866904    -1134.9841     -985.77907    
       350   0.92869299    -1135.2586     -981.93118    
       360   0.92870393    -1135.2116     -979.99992    
       370   0.92873742    -1135.1346     -991.13287    
       380   0.92883101    -1135.0316     -998.08209    
       390   0.92888673    -1134.9163     -979.5752     
       400   0.92884542    -1134.6447     -971.60828    
       410   0.92881926    -1134.2756     -981.03216    
       420   0.92882806    -1133.8042     -984.62169    
       430   0.92881953    -1133.306      -979.61122    
       440   0.92876993    -1132.7874     -973.81385    
       450   0.92869902    -1132.2887     -973.49475    
       460   0.92863639    -1131.9871     -975.26722    
       470   0.92858939    -1131.9014     -976.83394    
       480   0.92856865    -1132.1958     -979.31005    
       490   0.92858991    -1132.7302     -983.39199    
       500   0.92867561    -1133.5965     -991.58227    
       510   0.92885144    -1134.7782     -1001.9928    
       520   0.92910635    -1136.1352     -1005.3626    
       530   0.92939061    -1137.5969     -1000.2629    
       540   0.92970821    -1138.9848     -1008.7443    
       550   0.93015907    -1140.1536     -1031.4898    
       560   0.93068342    -1141.3286     -1030.4694    
       570   0.93117726    -1142.4071     -1020.9771    
       580   0.93165228    -1143.3559     -1022.7682    
       590   0.93216227    -1144.1999     -1030.0847    
       600   0.93268657    -1144.9733     -1030.3123    
       610   0.9331982     -1145.7518     -1029.374     
       620   0.93369735    -1146.3716     -1029.6169    
       630   0.93419464    -1147.0221     -1033.2868    
       640   0.93469613    -1147.5963     -1034.7794    
       650   0.93515602    -1148.1302     -1023.3837    
       660   0.93552456    -1148.474      -1012.1934    
       670   0.93587946    -1148.565      -1026.3262    
       680   0.93629468    -1148.6073     -1033.2545    
       690   0.93665452    -1148.7295     -1020.3594    
       700   0.93692974    -1148.9016     -1012.1732    
       710   0.93717244    -1149.0786     -1012.7401    
       720   0.93742068    -1149.293      -1017.3198    
       730   0.93769559    -1149.5705     -1027.2052    
       740   0.93800502    -1150.0796     -1026.2241    
       750   0.93823888    -1150.7067     -1006.4843    
       760   0.93842257    -1151.2332     -1007.784     
