LAMMPS data file via write_data, version 2 Aug 2023, timestep = 610, units = real

512 atoms
1 atom types

-0.007 19.993 xlo xhi
0.022 20.022 ylo yhi
0.0085 20.0085 zlo zhi

Masses

1 39.948


Atoms # atomic

1 1 7.679875071957084 19.07161323159861 1.5821205238957687 0 0 0
2 1 19.73563559816357 19.70639557177447 5.457515348559433 0 -1 0
3 1 15.593602367534034 8.485435807832674 8.454617456374134 0 0 0
4 1 9.179845366950037 17.196735565313414 9.392982160863623 0 0 0
5 1 1.7425021333299953 11.364266804117461 11.279568775417047 0 0 0
6 1 13.083370004021534 1.637916056038427 4.068969396861782 0 0 0
7 1 13.47914183151068 7.329274835247291 18.618499480224685 0 0 0
8 1 8.905991683027022 7.6217932311121706 16.01683767213504 0 0 0
9 1 2.1095580994561907 16.954523988372287 14.423565903155836 0 0 0
10 1 2.040977455466416 13.603355238285893 2.178880803318982 0 0 0
11 1 6.361424231421598 5.620783058041188 10.515458584724733 0 0 0
12 1 12.348554250967412 18.7758645017425 0.5025321637468925 0 0 1
13 1 1.5656334302877013 18.996812977280186 7.10491019941676 0 0 0
14 1 1.087425445417368 1.70831727643925 0.6875030400592227 0 0 1
15 1 10.060173997046233 11.617754531412768 9.79024297510299 0 0 0
16 1 0.00910912467939795 16.80113412739234 1.1462964856940236 1 0 1
17 1 9.769009559090541 12.31526034266556 14.491136040753082 0 0 0
18 1 12.77123573786051 1.1505910891842277 1.4843632827737008 0 1 0
19 1 2.990517488699906 9.002713894342088 11.47097870470927 0 0 0
20 1 19.914880795337528 17.068600818956046 8.068709284014773 -1 0 0
21 1 13.693075987191072 1.6639636190080758 14.80068810835981 0 0 0
22 1 8.857283414079216 3.8534380133161514 15.868372231588447 0 0 0
23 1 5.5837670844183025 14.325642176574323 13.372678382654788 0 0 0
24 1 11.79098351131091 1.093808149002833 10.45196657277262 0 0 0
25 1 5.469742101391342 1.638588858092742 12.27254697422026 0 0 0
26 1 11.201322900992524 11.991381222569073 0.6042845139619762 0 0 0
27 1 6.958166673471964 5.6217422917945985 15.745257114914796 0 0 0
28 1 9.152655926527222 4.137358932021249 0.2941077699767157 0 0 1
29 1 12.268488585004356 15.65116782046034 16.913831965463075 0 0 0
30 1 3.902991666909883 2.9702572820311905 1.5405986378517242 0 0 0
31 1 15.013082830363098 15.067885164589185 6.735219561693617 0 0 0
32 1 6.091758415400183 11.947057948042803 18.446902896926286 0 0 0
33 1 3.7205862930150015 18.198253039291487 1.582201203352519 0 0 0
34 1 10.731354730424243 18.36415036881069 7.463164133553388 0 0 0
35 1 0.32944735900686306 7.273777032703363 14.481148727127795 0 0 0
36 1 3.697428841328847 18.694263788383772 17.981217486732064 0 0 0
37 1 8.19645569537453 12.290723906687417 16.76656803856044 0 0 0
38 1 19.941131303855382 3.99210180951304 7.758568632841682 -1 0 0
39 1 12.998959363950704 19.242802024977898 8.885457390957264 0 0 0
40 1 15.753808988792622 7.290824198388845 16.890255531527117 0 0 0
41 1 2.0188604712742237 10.504130735638748 6.455853523770306 0 0 0
42 1 1.607238557255328 13.665153853819831 17.44343410117452 0 0 0
43 1 5.627856782976354 0.6452715471793098 18.03899806405211 0 1 0
44 1 4.009390754834624 19.614556935684156 13.02834817455394 0 0 0
45 1 19.931361905060328 9.57898275303282 5.150555523760228 -1 0 0
46 1 11.830976356518729 16.71846541705226 9.319274078481422 0 0 0
47 1 6.464452537718892 3.8941464102088554 0.9969300932667732 0 0 0
48 1 9.224072015570213 11.18711445093086 18.930227862617308 0 0 0
49 1 8.429931326812287 13.197158276360305 4.7107931753323395 0 0 0
50 1 11.924082971743728 12.055950212303985 7.846951736614931 0 0 0
51 1 1.8929373656471173 5.863827630506262 7.2249618612603435 0 0 0
52 1 7.035158075746879 11.448040205697152 14.400767323298002 0 0 0
53 1 6.301209196911774 12.22516269510034 11.999486565025633 0 0 0
54 1 18.931272870454755 1.1606856278438478 18.60723878985362 0 1 0
55 1 17.720390423469457 17.895595231195635 9.834625154235432 0 -1 0
56 1 14.131715752689296 8.503754584756347 0.9613113238055147 0 0 1
57 1 13.232929084538315 7.110925051761415 13.356075209995142 0 0 0
58 1 15.281214647182983 17.813580072599606 8.856541501205577 0 0 0
59 1 18.829109793950654 10.426253827101172 7.790656286371906 0 0 0
60 1 4.312195684362671 11.308620165200024 10.687899811126313 0 0 0
61 1 7.233755608023499 5.472671350539095 13.145717920962264 0 0 0
62 1 14.74891536238327 15.320527429613666 2.609646426822986 0 0 1
63 1 10.895132775110262 5.033707067487866 2.1291233740985134 0 0 0
64 1 14.685453149637135 11.305731106464467 14.837718358537536 0 0 0
65 1 8.625862908358405 13.867086496949936 19.053947715105853 0 0 0
66 1 0.18898159313244028 6.297688837605201 9.261560013594236 0 0 0
67 1 16.436427165932876 8.61668582532152 3.564367414201722 0 0 0
68 1 11.793683522828282 3.3592086718566847 0.041180638604615044 0 0 0
69 1 3.8913727492153734 3.5309867253319895 4.12925980547955 0 0 0
70 1 6.760852422945237 8.69572624774654 1.9466754590568633 0 0 0
71 1 17.43192429165537 18.808015304399028 14.016121201407445 0 0 0
72 1 1.4170256653054287 3.2708894162511 3.19033579380803 0 0 0
73 1 17.347468866845333 4.3074238788208286 18.909681498322815 0 0 0
74 1 17.426380516628054 8.57929288709243 6.19044886983211 0 0 0
75 1 9.862162875508826 18.178437165673664 0.23621980786917024 0 0 1
76 1 18.683083253814047 20.00550490641124 11.517570253770018 -1 -1 0
77 1 2.465488197072734 17.713999752539266 11.949597348870178 0 0 0
78 1 3.16760994948219 9.959352112228755 8.782908188442484 0 0 0
79 1 11.294760315564659 5.664469942958524 6.816338938661621 0 0 0
80 1 10.101322753203732 0.9543627993772188 0.10986006202974359 0 1 1
81 1 16.334040311137795 6.009396388979893 7.52577161480829 0 0 0
82 1 15.818169648065211 1.9261499821766437 5.183377792670673 0 0 0
83 1 4.723128867243752 10.631647937995023 5.832927159953337 0 0 0
84 1 0.7734739136743152 4.1687180834289315 10.66785659117633 1 0 0
85 1 3.7284796796875646 15.523779851259203 0.7352059036070208 0 0 0
86 1 14.862441376787768 8.615588359615085 14.752367968308835 0 0 0
87 1 11.054469450612576 14.81408856093221 14.137225994813253 0 0 0
88 1 4.685264926185625 14.695868236218608 7.9354230643287575 0 0 0
89 1 4.742686585366696 5.403220669754448 17.607357418780122 0 0 0
90 1 1.2161139362636721 14.086207185023982 4.703839762265695 0 0 0
91 1 13.934763616014209 12.598831931007068 5.954597458988199 0 0 0
92 1 15.53861001149484 13.64004114451069 16.027431529964737 0 0 0
93 1 5.355254567739784 9.662094678023916 12.673300199454669 0 0 0
94 1 15.508435197872345 3.475993891751418 15.781109431731224 0 0 0
95 1 16.612830980478382 17.402604401346565 3.29245353499109 0 0 0
96 1 12.973981523915773 15.150694344640568 11.80810042858786 0 0 0
97 1 2.1336189606542977 1.0407812776709986 5.119179197555426 0 0 0
98 1 19.655526283357165 19.662311052261177 9.010612379595324 0 0 0
99 1 16.53002209558911 19.747125557001546 1.9935189473136212 0 0 0
100 1 13.678774974535477 15.134517701634158 14.669843917190912 0 0 0
101 1 5.949611907323367 1.2414660851454238 8.090687128973125 0 0 0
102 1 8.292523602642213 18.416773715916353 11.546137992781166 0 0 0
103 1 10.098067334289308 8.981142716341553 3.840973039106592 0 0 0
104 1 13.341899011489529 5.592802116486758 0.5932169565059852 0 0 1
105 1 12.685671251581864 12.0272198555539 10.61756412656729 0 0 0
106 1 2.2474878990165297 6.282702955805418 15.95268021758229 1 0 0
107 1 14.979868895896033 10.438668870684678 4.946757169409672 0 0 0
108 1 19.785606097095958 5.860700327821029 17.190148012717287 0 0 0
109 1 17.22227451297329 12.103356990977058 14.594642081665224 0 0 0
110 1 8.663579853702526 11.316995732976284 12.029911906711602 0 0 0
111 1 17.364158786347797 16.821989905285864 17.88250338752104 0 0 0
112 1 11.789208584435475 19.863708226784247 15.463442883257326 0 -1 0
113 1 17.657436464679304 4.079171294163711 6.077519367233658 0 0 0
114 1 13.959331117159962 17.15873933785907 4.336661400209637 0 0 0
115 1 5.628483238220448 18.587877436630194 11.155076978621668 0 0 0
116 1 17.262685416520803 14.918022023199212 2.041200221798617 0 0 0
117 1 16.492000520812255 13.912850264330784 18.617134349042413 0 0 0
118 1 8.411155085482529 9.993734672816503 8.164858262230432 0 0 0
119 1 7.157514748057014 4.2346517167436675 18.15186500449329 0 0 0
120 1 11.06287022353577 13.195220403788834 5.490558845361246 0 0 0
121 1 10.108642877885737 0.40201932575742644 17.398352136129642 0 1 0
122 1 18.875586259416263 13.199376944914423 8.503135464272374 0 0 0
123 1 11.989327838075024 5.70756669448771 10.089272193789185 0 0 0
124 1 9.327566855329694 9.134631844295953 10.587185572952167 0 0 0
125 1 8.053456287239682 15.312717349346059 2.3863823398910973 0 0 0
126 1 12.04295815222651 10.88987928690781 14.857430893044745 0 0 0
127 1 15.403473372593401 9.233003156940278 18.683422797065347 0 0 0
128 1 16.619490150525397 6.287314154220052 4.8686914414326985 0 0 0
129 1 18.724131724541447 9.596274648507618 2.7265179615128035 0 0 0
130 1 14.760194500757112 19.42821457822792 13.954987085660296 0 0 0
131 1 6.819419144929586 7.307139308735182 17.72480460213351 0 0 0
132 1 0.5519160716235718 15.6920374345519 12.606381730741845 0 0 0
133 1 9.987985092194133 19.945021579227173 2.546551904698116 0 0 0
134 1 6.3269131731259005 14.330270801049789 0.40583369455704105 0 0 1
135 1 10.19504306444829 15.433723239034144 0.7034668935555929 0 0 1
136 1 7.725201295028336 1.5797046547186284 16.638368406174372 0 0 0
137 1 18.452008918818336 15.287698819940244 19.69586917558725 0 0 0
138 1 11.685948599974552 9.215810473404407 19.6319550059341 0 0 0
139 1 0.0017375450575869422 3.507196854933947 18.472976415284407 1 0 0
140 1 2.3624132333105985 9.263089674413497 16.187682393221287 0 0 0
141 1 10.581295495319777 17.30533916591541 15.662368892406917 0 0 0
142 1 7.223571824343731 18.91669606071586 8.715894365518947 0 0 0
143 1 7.8582211935737485 10.764519497107347 3.448394685939184 0 0 0
144 1 8.144288903471153 17.3652917750662 6.766649969393109 0 0 0
145 1 13.007673659954483 6.00165468587298 4.144262417398549 0 0 0
146 1 16.531465117996987 9.872651621668895 16.306381975284946 0 0 0
147 1 4.348682180374316 12.727924114191666 1.107049159216166 0 0 0
148 1 16.067367987324925 2.9148936826281804 10.529969153186046 0 0 0
149 1 14.959021882763077 16.89119737674512 13.232981061204176 0 0 0
150 1 15.713503299584325 12.971113348223845 3.8927430112038057 0 0 0
151 1 0.3541193774299597 5.853685663783519 2.454931528665637 0 0 0
152 1 14.16172188615069 0.1257221005373423 16.97396662705487 0 1 0
153 1 2.8845099214984518 12.928895998002881 6.781505603531773 0 0 0
154 1 17.528906797885213 11.899843015908127 2.1031945330641912 0 0 0
155 1 10.277624197527786 15.931128760702565 11.612997543460656 0 0 0
156 1 7.364070778632627 12.391722739541079 9.369488354909322 0 0 0
157 1 5.540471997488459 14.162026682273158 10.435039112735163 0 0 0
158 1 17.993506318503677 16.65251133100536 12.56499798769354 0 0 0
159 1 7.1136619004181245 11.815760765559038 6.6573428112131765 0 0 0
160 1 18.868085773846193 0.03529676191853781 0.9355639104971945 0 1 0
161 1 4.826954877274088 1.3608258689951687 5.3691206721524605 0 0 0
162 1 17.461081282473202 9.467734814259464 13.782637940107794 0 0 0
163 1 5.05249452239665 4.172298820628649 12.448620456897192 0 0 0
164 1 6.419090791945738 13.093593395814663 3.015622609951587 0 0 0
165 1 5.483645846772495 19.62566491304345 3.331502295148715 0 0 0
166 1 9.408362251826361 6.89251502996491 13.517550002828166 0 0 0
167 1 9.199084305519229 7.8647793081654065 6.438475187771579 0 0 0
168 1 14.028637157638373 15.307598503487673 9.286943198768416 0 0 0
169 1 14.766596772829205 19.63381778795376 4.006085090537152 0 0 0
170 1 10.75395249870998 14.44897679627377 3.1410940866338564 0 0 0
171 1 5.871151534641622 1.0948226599427255 1.0983018023147548 0 0 0
172 1 11.970701813217818 7.995405784320274 5.670848446185651 0 0 0
173 1 12.629206487840625 13.132407889186617 16.098206794034194 0 0 0
174 1 8.931247827091248 12.993774070464367 1.565582837338052 0 0 0
175 1 1.1207466129126178 16.724129678083436 5.581012614980567 0 0 0
176 1 5.27807109604164 13.284943199547412 5.532948389473494 0 0 0
177 1 19.418594742746592 15.763558037536843 3.5052212899394415 -1 0 0
178 1 0.10079476842403345 4.14610146523457 15.312452772518098 0 0 0
179 1 9.977971005014641 2.9526139843167 18.109814607257146 0 0 0
180 1 16.350274130817112 4.311792602400757 1.5464822370241524 0 0 0
181 1 12.36721579180352 0.9256733637886286 18.77960785894232 0 0 0
182 1 14.772530381837132 11.594501004614385 17.541442944885418 0 0 0
183 1 12.014250509210012 4.950351995635352 17.778808363282682 0 0 0
184 1 17.71791056944403 13.446025435600724 11.479431763881074 0 0 0
185 1 1.3842143316562483 0.05698529111862246 18.530772595635955 0 1 0
186 1 4.455031659179064 17.20452444456663 3.965132069273972 0 0 0
187 1 6.463258122293755 15.409388393741182 4.575426583442825 0 0 0
188 1 15.136658705587411 10.672161420139561 2.26139779398755 0 0 1
189 1 7.324317192987847 14.594568866943955 7.088151715551971 0 0 0
190 1 15.811901037785873 14.141449521358068 13.331898741118616 0 0 0
191 1 18.60296129972719 7.014348629632287 11.304224156705104 0 0 0
192 1 18.37679567618007 9.777071317806069 18.41126293791009 0 0 0
193 1 15.276908446975781 13.197296109198993 1.0700599272903584 0 0 1
194 1 5.169222672661476 12.843563318429903 15.942751145146 0 0 0
195 1 5.388383974443238 15.940804073623932 15.677381450490245 0 0 0
196 1 11.222221712674411 13.87130735979979 18.714879285950545 0 0 0
197 1 14.781905300610964 0.39494320176885744 19.991064706289226 0 1 -1
198 1 4.0220490742584705 18.37600257159135 15.392865702532337 0 0 0
199 1 14.408478841905508 5.420689694133447 11.791034297962081 0 0 0
200 1 4.943619364643311 6.882248135614747 12.673258250372813 0 0 0
201 1 16.585661933686332 16.028653119811977 15.092806044437458 0 0 0
202 1 19.581092093761402 2.506078647301257 5.0397317195243545 -1 0 0
203 1 13.671661743891105 9.82312565044519 12.636479136744878 0 0 0
204 1 5.084080656692662 16.4142565080031 18.632087753966236 0 0 0
205 1 15.22150991288428 4.207187170329736 4.17716679850607 0 0 0
206 1 10.041434261479392 10.12167563724428 16.52752343563612 0 0 0
207 1 7.602795939284136 3.340308677134327 11.324903783870786 0 0 0
208 1 16.177521243079465 10.761288781244088 7.253738252348331 0 0 0
209 1 3.2908284551271993 14.49451581176937 14.826864024529637 0 0 0
210 1 13.311520995653927 9.398545563794473 16.797397532006244 0 0 0
211 1 18.975659723195164 7.306236924031274 4.201573525671106 -1 0 0
212 1 19.113349263153562 3.4170309724102 1.2595705373604267 0 0 0
213 1 5.201583988218891 3.187697820031711 9.811716139900149 0 0 0
214 1 1.3151636373416218 6.902430996337087 11.742791566754152 0 0 0
215 1 14.015575631170307 1.7455211621695816 8.994129365248401 0 0 0
216 1 17.038339584699223 4.89635341026253 12.030375409566005 0 0 0
217 1 1.2896416496378982 14.830530918295496 19.876879914819437 0 0 -1
218 1 18.49446307244589 13.361136590429307 4.1084775265141795 0 0 0
219 1 9.312601210613055 5.692690715980111 17.82538444990618 0 0 0
220 1 19.6506790810876 5.062918720936771 12.895790182797114 0 0 0
221 1 17.817670735942148 7.175316529190189 18.63126562835994 0 0 0
222 1 19.749372163630916 9.921579073821926 15.300999440994996 0 0 0
223 1 12.25050922103993 18.993025259371468 3.3078187192390134 0 0 0
224 1 8.440752945259165 19.081922400502656 15.776776455407102 0 -1 0
225 1 5.214710914729048 7.63353337373754 19.87186259504639 0 0 0
226 1 1.8649464980915247 18.641720731787853 3.8768838168752504 0 -1 0
227 1 16.726306729042083 15.30375686919728 4.790237810143686 0 0 0
228 1 17.62079625941703 10.963842075895675 4.8468889162727535 0 0 0
229 1 4.74438863846576 3.555849670462401 6.915731369359617 0 0 0
230 1 8.76463270786691 0.44684794965611524 6.903651940187224 0 1 0
231 1 4.615887172843238 18.74316730633198 8.418212971967701 0 0 0
232 1 6.433477839262033 19.365682301441428 6.089108673276907 0 -1 0
233 1 14.91498928858396 13.353937203843333 11.021454478132421 0 0 0
234 1 1.285949674698536 1.660439532112902 9.791107702500428 0 0 0
235 1 3.8076170048255373 8.289750195129306 2.010135305692322 0 0 0
236 1 9.224256957733886 7.393169652146456 1.7377164281604973 0 0 0
237 1 12.126391567145124 17.22412456920288 13.370312695105314 0 0 0
238 1 7.385071913329113 17.81764904891903 4.0043721193798625 0 0 0
239 1 15.42180453827755 5.779909362399119 14.383822637275317 0 0 0
240 1 10.927636389750116 6.403505597580405 19.80071478396727 0 0 -1
241 1 18.481396689373504 17.34394488770149 5.458729784027881 0 0 0
242 1 8.966814347407443 3.2498526071092844 4.28038656109045 0 0 0
243 1 10.264662504765978 6.287626234931757 4.320320219188581 0 0 0
244 1 7.150674675975822 0.7838924632996556 10.530794989385226 0 0 0
245 1 11.129713572007137 10.449166208321603 12.369675728094343 0 0 0
246 1 6.883550465914912 11.512452117786465 0.9684956887216036 0 0 0
247 1 18.853997653655476 2.680328993976242 11.845389231127594 0 0 0
248 1 15.128205729302724 0.13371918407579406 7.086692653731183 0 0 0
249 1 6.783231247112314 8.138375830165526 14.424170047767511 0 0 0
250 1 5.105080635032727 8.020174848240941 4.362696659889101 0 0 0
251 1 11.691855436351018 2.4483191776014994 13.134689585690518 0 0 0
252 1 7.390684630214779 7.896905551386072 11.84181641565319 0 0 0
253 1 19.575714347659556 5.701290344961032 19.896335870842513 0 0 -1
254 1 12.018348508893416 3.5994930628218285 8.459291962975854 0 0 0
255 1 13.831094558516558 13.805948461073006 18.65657024801103 0 0 0
256 1 3.158900615685591 14.648528192513117 12.023464680027827 0 0 0
257 1 16.210899254507854 6.600994268425301 10.13248102581622 0 0 0
258 1 17.65095614515088 12.004465109946233 17.166964579992865 0 0 0
259 1 2.8737683789650843 9.53544745390329 4.230923110510713 0 0 0
260 1 5.776093532605014 9.313376899644227 7.950131731711576 0 0 0
261 1 14.581597996690741 17.96697488951305 1.598956610368323 0 0 0
262 1 9.942174045637094 18.900548465126548 13.562931934258597 0 0 0
263 1 11.241163103176719 7.779967992420914 11.765525835493232 0 0 0
264 1 3.445066953864207 11.379558267782384 17.898094469095856 0 0 0
265 1 16.943103716194166 13.136684539782001 6.483672625733904 0 0 0
266 1 19.348043769882036 12.978375898740682 18.878623125023687 0 0 0
267 1 9.38058954394398 3.8458680097809603 13.281305360966588 0 0 0
268 1 2.5943902576557507 7.42939038025888 9.261725683066707 0 0 0
269 1 12.633509576037628 16.256032075062862 19.516839044360587 0 0 0
270 1 10.950234593267597 9.652458476752289 7.463472000261413 0 0 0
271 1 11.233472395073086 7.69762179724848 17.293071660316272 0 0 0
272 1 17.780591333639705 1.9028707348494018 3.1382523056215845 0 0 0
273 1 11.670713038608916 3.8267887977525836 4.844741357949915 0 0 0
274 1 14.431907351356179 12.589678563459692 8.50695456630269 0 0 0
275 1 3.733182447211817 2.261700349239805 14.171108146347878 0 0 0
276 1 19.557575551970437 8.307853000034637 0.4128566501027503 0 0 1
277 1 1.2117569420905907 18.32127298346039 16.553892447236187 0 0 0
278 1 10.757712203520848 13.178219904653574 12.04595426979123 0 0 0
279 1 2.7053058374624723 3.75099511876065 8.795077899895757 0 0 0
280 1 18.94712824220086 6.373003161411923 6.7813155473659465 0 0 0
281 1 2.966551535405085 13.450072265105899 9.62566154746547 0 0 0
282 1 14.000037999177113 5.073372344580963 6.468182419455916 0 0 0
283 1 3.6063574951766966 8.178690383981388 6.747925724629159 0 0 0
284 1 9.098053254968589 15.715094419013589 4.917301920461611 0 0 0
285 1 3.424342974241593 15.32353502274523 5.570197788288367 0 0 0
286 1 0.5292910081163255 8.22947079138997 17.828023538318497 0 0 0
287 1 4.054998424429066 13.919839113671701 18.518797695619615 0 0 0
288 1 2.1152957814950906 5.204046944334817 18.356649397234776 0 0 0
289 1 4.20791867508324 16.528969244423855 10.193881933167633 0 0 0
290 1 12.713250431432744 14.094102977659345 1.1488502496256696 0 0 0
291 1 6.2949910465725125 4.854172697579242 4.731092408906691 0 0 0
292 1 11.393138416111988 1.070060015979945 7.718292610857021 0 0 0
293 1 0.5652730191548446 1.4956992649940954 7.294371235087759 0 0 0
294 1 13.69561545754653 8.581357784513692 3.659836345062564 0 0 0
295 1 15.192263229107887 1.9821609232228892 2.4324576427958315 0 0 0
296 1 17.804122829655043 6.736571563146788 13.891960932099908 0 0 0
297 1 6.612483539955543 16.352680254489865 9.040128323958582 0 0 0
298 1 0.6707667498591598 1.650363801015938 16.417581578986198 0 0 0
299 1 18.175093150666864 2.716744795581773 16.620876026614294 0 0 0
300 1 11.493584370956752 16.694685420411673 5.209819562831631 0 0 0
301 1 15.355248248137606 15.837517457377015 0.03519423732858809 0 0 1
302 1 17.304810151530056 16.279127685505816 7.68558758284427 0 0 0
303 1 15.998425925458065 15.956561047200507 10.968863432276136 0 0 0
304 1 1.1022419378697759 2.5511005778439695 13.438073885493104 0 0 0
305 1 12.023006431369582 9.567899014666654 9.839818953289848 0 0 0
306 1 13.603902060804282 9.96973274100655 7.4145998014860615 0 0 0
307 1 18.560701019163243 2.1255410433832087 9.303137923348448 0 0 0
308 1 19.073311348123703 1.0331086327162557 14.215208262616542 -1 0 0
309 1 19.932131690686624 12.227603807202701 6.144796715863488 0 0 0
310 1 4.313447523503734 14.619827717097543 3.1511296636482835 0 0 0
311 1 17.870781552454545 1.478498131910588 6.832622698924726 0 0 0
312 1 10.027977251211558 16.44969307768648 18.223861363747186 0 0 0
313 1 17.787411640801505 6.663903936533981 1.816076592641392 0 0 0
314 1 11.89580694434653 18.385121187534263 17.843797529785313 0 0 0
315 1 13.345046753556787 17.198535404591343 7.093082010638083 0 0 0
316 1 1.4495050521658461 0.2601326079852582 11.965977755920253 0 0 0
317 1 3.4204661520075312 5.452929449022597 10.810281038474697 0 0 0
318 1 3.2506357841011817 1.1819400302157288 7.710050897521442 0 0 0
319 1 11.359287095351046 2.744202667086323 15.869643496490879 0 0 0
320 1 17.270831019105813 19.73015732024014 4.7060354107414994 0 0 0
321 1 2.0581508022494686 16.210198197403525 2.8496224904852174 0 0 0
322 1 8.619510197631005 14.615845981321012 9.830179216768732 0 0 0
323 1 0.4606092322489146 11.615425402634882 3.4380185960227285 0 0 0
324 1 13.132089209121254 14.672706441657631 4.552238905985206 0 0 0
325 1 11.898929014477822 11.38312306444822 17.964118219429256 0 0 0
326 1 2.169361378962238 3.4309428172381096 6.154637315729669 0 0 0
327 1 7.348931319504427 9.794189649181076 16.549484324041213 0 0 0
328 1 6.587266819487659 14.491330160850037 17.57973496558368 0 0 0
329 1 1.3175250807394516 19.111120517223153 1.2202506362769039 0 -1 0
330 1 4.037994941059872 0.6591690526080559 10.266662773655996 0 0 0
331 1 15.998896001847324 11.294305582953239 12.350461650969693 0 0 0
332 1 14.527230410627206 18.074197747727418 18.721170631670283 0 0 0
333 1 7.470551412447616 0.2785780044039614 13.293033099228287 0 0 0
334 1 2.6042383203100377 3.6320588426537794 16.145286137324995 0 0 0
335 1 9.566653919655709 19.9928715864885 9.423165654121938 0 0 0
336 1 4.557487470349018 5.893326274118948 8.31278798539006 0 0 0
337 1 7.490145578736788 6.273225930449734 0.09543163387778103 0 0 0
338 1 16.791895188242997 11.694035635678246 9.601486850432412 0 0 0
339 1 9.759864542516873 18.696917348154486 5.007131239647816 0 0 0
340 1 1.7178240178047264 4.262786366552578 0.7588458164307889 0 0 0
341 1 17.268048519036917 9.358877409445086 10.884840220419134 0 0 0
342 1 16.464209309443124 0.9758546181706221 15.454741486808551 0 0 0
343 1 14.377658670112368 0.7941021116050387 11.450929396360513 0 0 0
344 1 9.53408350246653 1.1734520330164657 11.89956194937756 0 0 0
345 1 0.6968679919782974 14.994873467717355 15.330134404239335 0 0 0
346 1 3.1700875398981525 7.610738881323108 18.17270034008619 0 0 0
347 1 3.5530739612809867 0.508726045400438 0.011041149765773639 0 1 1
348 1 1.681863399438529 7.305105028124834 4.906372475247625 0 0 0
349 1 17.944268267776422 4.724223403928124 9.405353300900426 0 0 0
350 1 9.460894919320387 4.987194631359102 8.651966101454041 0 0 0
351 1 13.137798585969799 3.2888591219612624 11.049182907561523 0 0 0
352 1 9.82294982955114 17.26505168111577 2.7587023982085674 0 0 0
353 1 19.789920391122873 12.52936882130962 15.61905887587251 -1 0 0
354 1 7.931936487787101 0.6194281997764851 4.218110575053256 0 0 0
355 1 8.781359543445468 16.395383134842366 13.804019717225554 0 0 0
356 1 13.740793032497542 11.174778055020099 20.006434593128706 0 0 0
357 1 4.968527810994432 2.9712043642577486 19.045930946859443 0 0 0
358 1 12.456586130411889 14.64872740233594 7.212695735039832 0 0 0
359 1 0.7286536378459341 8.339916492732675 7.365336283750825 0 0 0
360 1 6.918815808311691 2.901541954259331 14.182681402259403 0 0 0
361 1 4.545343369893538 16.734455664435174 13.11340069862355 0 0 0
362 1 3.916206799553805 12.135827171492986 13.25053368769842 0 0 0
363 1 18.210493598241857 8.017262751461875 8.771989018990872 0 0 0
364 1 8.540756421050515 5.287703158540661 6.085505385590813 0 0 0
365 1 1.8727668624344156 0.08160839410628423 14.603980874391217 0 0 0
366 1 16.490534040123915 14.235284084804993 8.991144366344775 0 0 0
367 1 17.40784291119629 5.292027220468019 16.263781788440323 0 0 0
368 1 13.786054787281588 7.760272839380801 10.6387860196423 0 0 0
369 1 18.542033104063698 14.350427384318918 13.872341386494472 0 0 0
370 1 1.11341724434607 8.516441572945928 2.550770480452703 0 0 0
371 1 13.142833086810894 4.341239589139832 14.657153164441347 0 0 0
372 1 5.0820407570587545 7.955316415626053 10.141292028660342 0 0 0
373 1 2.0009047811395844 9.550959376232127 19.652840316877644 0 0 -1
374 1 2.0835948855649966 17.305764694000068 19.41494925283048 0 0 0
375 1 17.360109053030236 17.563984353907834 0.6742198976304506 0 0 0
376 1 3.003677839583585 5.783717154410362 2.8939692660547536 0 0 0
377 1 11.003604990576834 18.518607255387487 11.076055090289596 0 -1 0
378 1 2.34162704284082 4.981213560795674 13.391198522084823 0 0 0
379 1 0.2145603479586943 16.049024993362917 17.760514070481896 0 0 0
380 1 15.950272291941973 3.105068641283174 7.795689822816568 0 0 0
381 1 7.2112419160662435 2.5993537763237247 6.150131826212281 0 0 0
382 1 0.04874592680533245 18.464651866039382 13.529451551117775 0 0 0
383 1 9.031186562259633 9.571454742283462 13.974897142451848 0 0 0
384 1 7.604303321471172 14.210464350747808 15.024683536038472 0 0 0
385 1 4.549959163582411 5.055000021346517 14.845498277117425 0 0 0
386 1 1.1576133663283898 14.57840869304867 7.795136842862608 0 0 0
387 1 11.308838651865987 14.12857679836323 9.594576033867298 0 0 0
388 1 1.8987294064496556 10.29784120001614 13.676566529024356 0 0 0
389 1 5.473247637647637 16.883227821715593 6.582459624776301 0 0 0
390 1 6.910167693157777 4.562146632760317 8.104864271074563 0 0 0
391 1 16.116745897814837 18.74896430925616 11.663120782884457 0 -1 0
392 1 19.42196744973111 18.305709067191113 18.90816152452824 -1 0 0
393 1 5.662576175383523 6.153819858486013 2.3944212177694815 0 0 0
394 1 9.380143022442725 9.997410850451866 1.3017900848854769 0 0 0
395 1 15.009493295125962 3.186121775261907 13.0704215782798 0 0 0
396 1 12.730810443046243 19.533185345026336 5.913367913459191 0 -1 0
397 1 14.728553486143865 7.793620659741554 5.9664528036384334 0 0 0
398 1 10.011242188920376 15.544043851020554 7.447334651153418 0 0 0
399 1 16.46546894549788 0.3987601699812682 9.492767262240871 0 0 0
400 1 4.689891078141254 7.523014902117464 15.841351840754015 0 0 0
401 1 7.680746138720389 16.582834290070565 19.57699090777665 0 0 0
402 1 8.314640858670716 2.015494287650808 1.8789221981145117 0 1 1
403 1 9.15848860409788 5.9309460591849374 11.06382331979033 0 0 0
404 1 9.244392834152524 8.285579257114536 18.9001205513283 0 0 0
405 1 7.7365177110237 7.283468165890789 4.096773297746838 0 0 0
406 1 13.155989566949783 12.388673290938824 3.1543556636774914 0 0 0
407 1 10.450726081867062 7.45934910860987 8.851363182049596 0 0 0
408 1 18.771825433200306 15.486648503947901 10.028797115867754 0 0 0
409 1 13.491350396462849 2.7797572950510108 17.377360551777166 0 0 0
410 1 14.90337229919971 15.906680468449114 17.247656759466384 0 0 0
411 1 7.694954087354216 7.380234711764808 8.93013347763762 0 0 0
412 1 10.819870530995539 2.474668160136493 2.544351255255342 0 0 0
413 1 9.39162501153726 12.932934774983263 7.576274852458776 0 0 0
414 1 3.7955078180768314 18.923035673785712 5.801532782384222 0 0 0
415 1 18.311472905928827 7.93439151246106 16.167777131974745 0 0 0
416 1 5.706320842184449 18.67307025395977 19.854797419863637 0 0 0
417 1 17.046176311653213 1.9486502292958918 0.40037456439039437 0 1 1
418 1 12.314941675523277 16.520849393149113 2.2399683360684954 0 0 0
419 1 18.17649527903775 4.541983357030986 3.519476869207754 0 0 0
420 1 13.1278297211092 7.249862119424351 8.094832556349509 0 0 0
421 1 15.750481299929294 6.501184574953332 19.962758971307647 0 0 -1
422 1 18.690971967747224 19.543727852388443 16.47041321463552 -1 -1 0
423 1 16.69136372081618 11.44389536720182 19.643535287897592 0 0 0
424 1 5.669547044629154 0.4820950827518784 15.198749155174811 0 0 0
425 1 10.654284046098896 1.179668136658367 5.00732063150846 0 0 0
426 1 3.3597457164082254 0.9758064316783829 16.618715454620112 0 0 0
427 1 12.365244156967204 19.897268967460295 12.878065238221067 0 0 0
428 1 10.832626587004578 5.589498855947796 15.359027343953652 0 0 0
429 1 13.253075867445567 3.8027979659894005 2.4663560477814483 0 0 0
430 1 6.7558437025447295 10.042894737315248 10.36298345769233 0 0 0
431 1 18.256070666909462 14.549200560197663 16.647767515017613 0 0 0
432 1 2.969604827326144 2.7726664675288704 11.545841878880978 0 0 0
433 1 17.659648166820098 3.475417058291977 14.143972007064297 0 0 0
434 1 19.12523468740751 18.43030108599906 3.0598536785388477 0 0 0
435 1 1.9299337123346054 12.300820807489039 19.81573797135248 0 0 -1